# vtk DataFile Version 3.0
Mesquite Mesh
ASCII
DATASET UNSTRUCTURED_GRID
POINTS 729 double
0 0 0
0 0 1
1 0 0
0 1 0
1 0 1
0 1 1
1 1 0
1 1 1
0 0 0.5
0.5 0 0
0 0.5 0
0.5 0.5 0
0.5 0 0.5
0 0.5 0.5
0.5 0 1
0 0.5 1
0.4517998191 0.4337235955 0.4566090478
0.5 0.5 1
1 0 0.5
1 0.5 0
0 1 0.5
0.5 1 0
0.5 1 0.5
1 0.5 0.5
1 0.5 1
0.5 1 1
1 1 0.5
0 0 0.25
0.25 0 0
0 0.25 0
0.25 0.25 0
0 0 0.75
0.25 0 0.75
0 0.25 0.75
0.25 0 1
0 0.25 1
0.2017998191 0.1837235955 0.7066090478
0.25 0.25 1
0.75 0 0
0.75 0 0.25
1 0 0.25
1 0.25 0
0 0.75 0
0 0.75 0.25
0 1 0.25
0.25 1 0
0.25 1 0.25
0.75 0 1
1 0 0.75
1 0.25 0.75
1 0.25 1
0 0.75 1
0 1 0.75
0.25 1 1
0.75 0.75 0
0.7017998191 0.6837235955 0.2066090478
1 0.75 0
0.75 1 0
1 0.75 0.25
1 1 0.25
0.75 0.75 1
0.75 1 0.75
1 0.75 1
0.75 1 1
1 1 0.75
0.25 0 0.25
0 0.25 0.25
0.226089 0.165938 0.210988
0.25 0 0.5
0 0.25 0.5
0.226089 0.165938 0.460988
0.5 0.25 0
0.5 0 0.25
0.75 0.25 0
0.25 0.5 0
0 0.5 0.25
0.226089 0.415938 0.210988
0.25 0.75 0
0.476089 0.165938 0.210988
0.476089 0.415938 0.210988
0.75 0.5 0
0.5 0.75 0
0.5 0 0.75
0.476089 0.165938 0.460988
0.75 0 0.5
0.726089 0.165938 0.210988
0 0.5 0.75
0.226089 0.415938 0.460988
0.226089 0.415938 0.710988
0 0.75 0.5
0.226089 0.665938 0.210988
0.226089 0.665938 0.460988
0.476089 0.165938 0.710988
0.5 0.25 1
0.75 0 0.75
0.726089 0.165938 0.460988
0.726089 0.165938 0.710988
0.75 0.25 1
0.25 0.5 1
0 0.75 0.75
0.25 0.75 1
0.476089 0.415938 0.710988
0.726089 0.415938 0.210988
0.476089 0.665938 0.210988
0.476089 0.665938 0.460988
0.726089 0.415938 0.460988
0.726089 0.665938 0.460988
0.226089 0.665938 0.710988
0.476089 0.665938 0.710988
0.726089 0.415938 0.710988
0.75 0.5 1
0.5 0.75 1
0.726089 0.665938 0.710988
1 0.25 0.25
1 0.25 0.5
1 0.5 0.25
0.25 1 0.5
0.25 1 0.75
0.5 1 0.25
0.75 1 0.25
0.5 1 0.75
0.75 1 0.5
1 0.5 0.75
1 0.75 0.5
1 0.75 0.75
0 0 0.125
0.125 0 0
0 0.125 0
0.125 0.125 0
0 0 0.875
0.125 0 0.875
0 0.125 0.875
0.125 0 1
0 0.125 1
0.09385725705 0.09977230052 0.8317321919
0.125 0.125 1
0.875 0 0
0.875 0 0.125
1 0 0.125
1 0.125 0
0 0.875 0
0 0.875 0.125
0 1 0.125
0.125 1 0
0.125 1 0.125
0.875 0 1
1 0 0.875
1 0.125 0.875
1 0.125 1
0 0.875 1
0 1 0.875
0.125 1 1
0.875 0.875 0
0.851089 0.790938 0.085988
1 0.875 0
0.875 1 0
1 0.875 0.125
1 1 0.125
0.875 0.875 1
0.875 1 0.875
1 0.875 1
0.875 1 1
1 1 0.875
0 0 0.375
0 0 0.625
0.125 0 0.375
0 0.125 0.375
0.101089 0.040938 0.335988
0.125 0 0.5
0 0.125 0.5
0.101089 0.040938 0.460988
0.375 0 0
0.625 0 0
0.375 0 0.125
0.5 0.125 0
0.5 0 0.125
0.625 0.125 0
0 0.375 0
0 0.625 0
0 0.375 0.125
0.125 0.5 0
0 0.5 0.125
0.1055956425 0.4410696264 0.0997640636
0.125 0.625 0
0.375 0.375 0
0.625 0.625 0
0.351089 0.290938 0.085988
0.5 0.375 0
0.375 0.5 0
0.476089 0.290938 0.085988
0.476089 0.415938 0.085988
0.625 0.5 0
0.5 0.625 0
0.375 0 0.625
0.625 0 0.375
0.375 0 0.5
0.5 0 0.375
0.476089 0.040938 0.335988
0.5 0 0.625
0.476089 0.040938 0.460988
0.625 0 0.5
0.601089 0.040938 0.335988
0 0.375 0.625
0 0.625 0.375
0 0.375 0.5
0 0.5 0.375
0 0.5 0.625
0.101089 0.415938 0.460988
0.101089 0.415938 0.585988
0 0.625 0.5
0.101089 0.540938 0.335988
0.101089 0.540938 0.460988
0.375 0 1
0.625 0 1
0.5 0 0.875
0.4660249482 0.09660332645 0.8316930737
0.5 0.125 1
0.625 0 0.875
0.5986044778 0.04482619925 0.7111120047
0.5910249482 0.09660332646 0.8316930737
0.625 0.125 1
0 0.375 1
0 0.625 1
0 0.5 0.875
0.125 0.5 1
0 0.625 0.875
0.125 0.625 1
0.3416884605 0.3017977311 0.5787501318
0.5916884605 0.5517977311 0.3287501318
0.351089 0.290938 0.460988
0.3591364488 0.4074900633 0.3318158175
0.4799844834 0.410431417 0.3309375637
0.476089 0.290938 0.460988
0.343395426 0.4258427557 0.4696113767
0.476089 0.290938 0.585988
0.4754019748 0.4167135207 0.5864798806
0.601089 0.415938 0.335988
0.4724965882 0.5468931804 0.3395740165
0.4706635379 0.548081896 0.4652819566
0.601089 0.415938 0.460988
0.594011077 0.5509741006 0.4664094743
0.375 0.375 1
0.625 0.625 1
0.351089 0.415938 0.835988
0.5 0.375 1
0.375 0.5 1
0.476089 0.415938 0.835988
0.351089 0.540938 0.835988
0.476089 0.540938 0.835988
0.601089 0.415938 0.835988
0.625 0.5 1
0.5 0.625 1
0.601089 0.540938 0.835988
1 0 0.375
1 0 0.625
0.875 0 0.5
0.875 0 0.625
1 0.125 0.375
1 0.125 0.5
1 0.375 0
1 0.625 0
0.875 0.375 0
0.875 0.5 0
0.851089 0.290938 0.085988
0.851089 0.290938 0.210988
0.851089 0.415938 0.085988
1 0.375 0.125
1 0.5 0.125
0 1 0.375
0 1 0.625
0 0.875 0.5
0 0.875 0.625
0.102911195 0.8328435169 0.6064037086
0.125 1 0.5
0.125 1 0.625
0.375 1 0
0.625 1 0
0.375 0.875 0
0.5 0.875 0
0.351089 0.790938 0.085988
0.476089 0.790938 0.085988
0.5 1 0.125
0.625 1 0.125
0.375 1 0.375
0.625 1 0.625
0.351089 0.790938 0.460988
0.476089 0.790938 0.460988
0.476089 0.790938 0.585988
0.375 1 0.5
0.5 1 0.375
0.5 1 0.625
0.625 1 0.5
1 0.375 0.625
1 0.625 0.375
0.851089 0.290938 0.585988
0.851089 0.415938 0.460988
0.851089 0.415938 0.585988
1 0.375 0.5
1 0.5 0.375
1 0.5 0.625
1 0.625 0.5
1 0.375 1
1 0.625 1
0.875 0.375 1
0.875 0.5 1
1 0.5 0.875
1 0.625 0.875
0.375 1 1
0.625 1 1
0.375 0.875 1
0.5 0.875 1
0.375 1 0.875
0.5 1 0.875
1 1 0.375
1 1 0.625
0.851089 0.790938 0.460988
0.851089 0.790938 0.585988
0.875 1 0.375
0.875 1 0.5
1 0.875 0.5
1 0.875 0.625
0.125 0 0.125
0 0.125 0.125
0.08961501715 0.06174377627 0.116887183
0.125 0 0.25
0 0.125 0.25
0.101404042 0.04694889602 0.2137206121
0.25 0.125 0
0.25 0 0.125
0.375 0.125 0
0.125 0.25 0
0 0.25 0.125
0.1055956425 0.1910696264 0.09976406359
0.125 0.375 0
0.2146978877 0.06242798987 0.1173677149
0.2274567249 0.1780521935 0.09582042953
0.375 0.25 0
0.25 0.375 0
0.125 0 0.75
0 0.125 0.75
0.09874465745 0.08331319652 0.7172975014
0.125 0 0.625
0 0.125 0.625
0.08937550744 0.07805107044 0.5939556879
0.25 0 0.875
0.2236044778 0.04482619925 0.7111120047
0.25 0 0.625
0.2242263218 0.04503830292 0.5872163174
0.375 0 0.75
0.3507206119 0.04256353253 0.5860319498
0 0.25 0.875
0.09022346651 0.2025889776 0.7220282586
0.09139374986 0.188605665 0.8361126709
0 0.25 0.625
0 0.375 0.75
0.09883637044 0.3029294136 0.5897274353
0.101089 0.290938 0.710988
0.213766268 0.1095284873 0.8359284549
0.25 0.125 1
0.375 0 0.875
0.3486040172 0.04482694834 0.7111120203
0.3642119689 0.09462611064 0.8462093862
0.375 0.125 1
0.125 0.25 1
0 0.375 0.875
0.125 0.375 1
0.2250516953 0.1820148647 0.8278272724
0.1097897896 0.1781425722 0.5951964449
0.2180220955 0.1797756792 0.591764787
0.3296751954 0.1541704472 0.5837629567
0.2252537187 0.3011935203 0.586885257
0.2241264206 0.2955865414 0.7130448459
0.3340387992 0.2129859408 0.6850926443
0.3358848364 0.2955213458 0.7110820809
0.101089 0.290938 0.835988
0.2231517105 0.299645993 0.8363094452
0.3706922132 0.1728878203 0.8641824231
0.375 0.25 1
0.25 0.375 1
0.3485028921 0.2952083598 0.8371431259
0.75 0 0.125
0.875 0.125 0
0.625 0 0.125
0.75 0.125 0
0.875 0 0.25
0.8510382668 0.04996961825 0.09594322684
0.625 0 0.25
0.7123801474 0.06768397686 0.1232894569
0.75 0 0.375
0.7251619692 0.04723614437 0.2116425015
1 0.125 0.125
0.875 0 0.375
1 0.125 0.25
0.875 0.25 0
0.8515317628 0.04363503044 0.2118406709
0.8614811412 0.1736925131 0.1077070865
1 0.25 0.125
0 0.75 0.125
0.125 0.875 0
0 0.625 0.125
0.125 0.75 0
0.1055956425 0.6910696264 0.09976406361
0 0.875 0.25
0.09683408509 0.8237246975 0.1203466093
0.1024217894 0.8351422105 0.2327534054
0 0.625 0.25
0 0.75 0.375
0.1011581904 0.679823051 0.215220624
0.08959814124 0.6860950379 0.338573352
0.125 1 0.25
0 0.875 0.375
0.102911195 0.8328435169 0.3564037086
0.125 1 0.375
0.25 1 0.125
0.25 0.875 0
0.2210026343 0.8319523502 0.1172136304
0.375 1 0.125
0.2386291744 0.8165512923 0.2293306699
0.221994616 0.8019356701 0.3451271877
0.25 1 0.375
0.375 1 0.25
0.875 0 0.875
0.8727212077 0.09399116108 0.8444719135
0.875 0.125 1
0.75 0 0.875
0.7113138855 0.09493575444 0.8336148342
0.75 0.125 1
0.865671508 0.08810496381 0.7299395127
1 0.125 0.75
0.875 0 0.75
1 0.125 0.625
1 0.25 0.875
0.8681638851 0.1880255635 0.7246319631
0.8802488982 0.195094832 0.8716296431
1 0.25 0.625
1 0.375 0.75
0.875 0.25 1
1 0.375 0.875
0 0.875 0.875
0.125 0.875 1
0 0.75 0.875
0.125 0.75 1
0.125 1 0.875
0 0.875 0.75
0.08991693813 0.8356743091 0.8716854114
0.125 1 0.75
0.25 0.875 1
0.25 1 0.875
0.726089 0.665938 0.085988
0.875 0.75 0
0.75 0.875 0
0.601089 0.540938 0.085988
0.75 0.625 0
0.625 0.75 0
0.726089 0.540938 0.085988
0.851089 0.665938 0.085988
0.726089 0.790938 0.085988
0.851089 0.665938 0.210988
0.851089 0.790938 0.210988
0.601089 0.540938 0.210988
0.601089 0.665938 0.085988
0.726089 0.540938 0.210988
0.5931028262 0.6736748791 0.2199936148
0.726089 0.540938 0.335988
0.7245630385 0.6677949384 0.3372147031
0.726089 0.790938 0.210988
1 0.75 0.125
0.875 0.625 0
0.851089 0.540938 0.085988
0.851089 0.540938 0.210988
1 0.625 0.125
0.875 1 0.125
0.625 0.875 0
0.601089 0.790938 0.085988
0.75 1 0.125
1 0.875 0.25
0.851089 0.540938 0.335988
0.851089 0.665938 0.335988
1 0.625 0.25
1 0.75 0.375
0.851089 0.790938 0.335988
0.875 1 0.25
1 0.875 0.375
0.726089 0.790938 0.835988
0.875 0.75 1
0.75 0.875 1
0.851089 0.790938 0.835988
0.601089 0.665938 0.835988
0.75 0.625 1
0.625 0.75 1
0.726089 0.665938 0.835988
0.601089 0.790938 0.835988
0.851089 0.665938 0.835988
0.75 1 0.875
0.875 1 0.75
0.601089 0.790938 0.710988
0.726089 0.790938 0.710988
0.625 1 0.75
0.75 1 0.625
1 0.875 0.875
0.875 0.625 1
1 0.75 0.875
0.625 0.875 1
0.625 1 0.875
0.851089 0.790938 0.710988
0.875 1 0.625
1 0.875 0.75
0.2264613117 0.0467882371 0.2137948484
0.25 0 0.375
0.3396882373 0.06235206527 0.1173144683
0.375 0 0.25
0.3514540773 0.04679682563 0.2137848936
0.1011581904 0.179823051 0.215220624
0 0.25 0.375
0.1009012198 0.1727204593 0.3374979847
0.1055956425 0.3160696265 0.09976406358
0 0.375 0.25
0.1011581904 0.304823051 0.215220624
0.2257851861 0.0419969477 0.3361860912
0.229049572 0.1598001667 0.3305890082
0.35479959 0.179644913 0.0968258556
0.2273300203 0.2971471724 0.08944516961
0.2262745475 0.2906020831 0.2104805085
0.3568481229 0.1702040073 0.2168031432
0.3537326287 0.2863789071 0.2071554518
0.2254818893 0.04538845626 0.4619322779
0.375 0 0.375
0.350615445 0.04276386441 0.3362675682
[...]
POINT_DATA 729
SCALARS fixed int
LOOKUP_TABLE default
1
1
1
1
1
1
1
1
1
1
1
1
1
1
1
1
0
1
1
1
1
1
1
1
1
1
1
1
1
1
1
1
1
1
1
1
0
1
1
1
1
1
1
1
1
1
1
1
1
1
1
1
1
1
1
0
1
1
1
1
1
1
1
1
1
1
1
0
1
1
0
1
1
1
1
1
0
1
0
0
1
1
1
0
1
0
1
0
0
1
0
0
0
1
1
0
0
1
1
1
1
0
0
0
0
0
0
0
0
0
1
1
0
1
1
1
1
1
1
1
1
1
1
1
1
1
1
1
1
1
1
1
1
1
0
1
1
1
1
1
1
1
1
1
1
1
1
1
1
1
1
1
1
0
1
1
1
1
1
1
1
1
1
1
1
1
1
0
1
1
0
1
1
1
1
1
1
1
1
1
1
1
0
1
1
1
0
1
1
0
0
1
1
1
1
1
1
0
1
0
1
0
1
1
1
1
1
0
0
1
0
0
1
1
1
0
1
1
0
0
1
1
1
1
1
1
1
0
0
0
0
0
0
0
0
0
0
0
0
0
0
1
1
0
1
1
0
0
0
0
1
1
0
1
1
1
1
1
1
1
1
1
1
0
0
0
1
1
1
1
1
1
0
1
1
1
1
1
1
0
0
1
1
1
1
0
0
0
1
1
1
1
1
1
0
0
0
1
1
1
1
1
1
1
1
1
1
1
1
1
1
1
1
1
1
0
0
1
1
1
1
1
1
0
1
1
0
1
1
1
1
1
0
1
0
0
1
1
1
1
0
1
1
0
1
0
1
0
1
0
1
0
0
1
1
0
0
0
1
1
0
0
1
1
1
1
0
0
0
0
0
0
0
0
0
0
0
1
1
0
1
1
1
1
1
0
1
0
1
0
1
1
1
1
0
0
1
1
1
1
1
0
1
0
0
1
1
0
0
1
1
0
1
1
1
0
1
0
0
1
1
1
0
1
1
0
1
0
1
1
1
1
0
0
1
1
1
1
1
1
1
1
1
1
0
1
1
1
0
1
1
0
1
1
0
0
0
0
0
0
0
0
0
0
0
0
1
1
0
0
1
1
1
0
1
1
0
0
1
1
0
1
1
0
1
1
0
0
1
1
0
0
0
1
1
0
0
1
1
1
1
1
1
1
0
1
1
0
1
0
1
0
0
1
0
0
1
0
0
0
0
0
0
0
0
0
1
0
0
0
1
0
0
0
0
0
0
0
0
1
0
1
0
0
0
0
1
0
0
1
0
1
0
0
0
0
0
0
0
0
0
0
1
0
0
0
0
0
0
0
0
0
0
0
0
0
0
0
0
1
0
0
1
0
0
0
0
0
0
1
0
0
0
0
0
0
1
0
1
0
0
0
0
0
0
0
0
0
0
0
0
0
0
0
1
0
0
0
0
0
0
0
0
0
0
0
0
0
0
0
0
0
0
0
1
0
0
1
0
0
0
0
0
0
0
0
0
0
0
0
0
0
0
0
0
1
0
0
1
0
1
0
0
0
0
1
0
0
0
0
0
0
0
0
0
0
0
0
0
0
0
0
0
0
0
0
0
0
0
0
0
0
0
0
0
0
0
0
0
0
0
0
0
0
0
0
0
0
0
0
0
0
0
0
0
0
0
1
1
1
1
1
1
1
1
1
1
1
1

CELL_DATA 3072
FIELD Mean-ratio 1
metric 1 3072 double
0.8056787618
0.7722998043
0.6288868369
0
0
0
0.8112043222
0.8580758241
0.8264043625
0.783964259
0.8176266232
0.7863968256
0.795689572
0.7191267744
0.6468950968
0.6888968511
0.8586708421
0.7678930057
0.713997105
0.8094527419
0.4181520683
0.6231799459
0.7770374301
0.2622357407
0.2484712888
0.5690627182
0.4945222843
0.8586708421
0.7764410582
0
0.6128172559
0.6210135657
0.7130385491
0.7014219773
0.7678930057
0
0.4545876618
0.7191267744
0.8586708421
0.7007159904
0.798113372
0.4736700867
0.4910574261
0
0.4181520683
0.4822270339
0.4545876618
0.4428113442
0.819154194
0.8610994774
0.6731285088
0.8323099409
0.7956238514
0.9053771059
0.818212387
0.6758123205
0.6453444587
0.7079799429
0.8041833244
0.6788556877
0.7346417743
0.7993164162
0.4280771345
0.6507230087
0.7642463343
0.2777934103
0.2547554708
0.6480585587
0.5210353882
0.8586708421
0.7802275558
0
0.6557765386
0.6976201664
0.7130385491
0.693279674
0.7754515355
0
0.5058416491
0.6363848326
0.8689194894
0.7007159904
0.798113372
0.5172359933
0.5399388962
0
0.6151907216
0.4990003041
0.5490118391
0.413401321
0.8096367649
0.8580758241
0.7378121108
0.8454520756
0.7765864294
0.8494463027
0.7367147875
0.8580758241
0.8580758241
0.7559526299
0.7759936614
0.7863968256
0.7863968256
0.795689572
0.7559526299
0.7559526299
0.7949608922
0.7437000432
0.7482921365
0.7570912591
0.7559526299
0.8086738936
0.7079465364
0.723961583
0.7736140141
0.8352475143
0.6783332097
0.6893127782
0.7991793899
0.7863968256
0.7605737963
0.7559315991
0.8672192571
0.8214651898
0.757235887
0.7586358408
0.7451376229
0.7560069329
0.7122616493
0.7604932976
0.7588926476
0.7504526091
0.795689572
0.7559526299
0.7559526299
0.8568894126
0.7816423845
0.7379038508
0.7559526299
0.7782061894
0.8221866754
0.7376652757
0.9043065654
0.8344898399
0.7687820722
0.8307584514
0.6872296636
0.6225900752
0.6872296636
0.7748952594
0.7046790203
0.6991234514
0.789614345
0.6872296636
0.6872296636
0.6888968511
0.8156651708
0.7398369798
0.7559526299
0.8399473666
0.7904716982
0.8434262205
0.8116298159
0.7652675952
0.7051611929
0.6723190535
0.7596241052
0.7325729159
0.7540694367
0.7395681827
0.855518048
0.69719373
0.6932624853
0.8408433435
0.7622313303
0.7513416983
0.7539056683
0.6821674428
0.8403611357
0.8186428635
0.6594720633
0.8399473666
0.8399473666
0.8399473666
0.6590734749
0.7573180286
0.7371707469
0.6872296636
0.4943583458
0.4283643641
0.7046279815
0.303780787
0.2963085904
0.2538093491
0.2658450162
0.6595941021
0.6367755233
0.8023850635
0.4670203307
0.4109320324
0.4559807045
0.4304064889
0.7553632859
0.7488566826
0.779343521
0.4964365595
0.5054059257
0.50396842
0.4935945713
0.3824421352
0.4799612484
0.4902469102
0.2883100919
0.6779409012
0.7579879453
0.5478976675
0.2796838749
0.2547859353
0.4697450274
0.2973865479
0.4643934733
0.4438204045
0.2767643798
0.4951593153
0.512037155
0.4895381322
0.7290591747
0.4953961822
0.4615687329
0.782626909
0.5089142995
0.4928229114
0.4834766845
0.7692438782
0.4839749647
0.5239705401
0.7422241995
0.8870070086
0.8725678497
0.8921633548
0.6415814406
0.6040685518
0.6515525383
0.7299011891
0.8533776032
0.7764410582
0.7879657647
0.7516019365
0.6983921353
0.7130385491
0.7014219773
0.8858965
0.7856836755
0
0.6937233844
0.5886000885
0.6655231967
0.7135252501
0.7644283761
0.6128172559
0.6712189719
0.6872296636
0.8440382156
0.8586708421
0.6210135657
0.6696855954
0.7333246904
0.5657138702
0.7478338021
0.8257295285
0.8585105486
0.7495631681
0.7130385491
0.6790218447
0.6843431064
0.7768409059
0.6978380726
0.7611402651
0.8742599242
0.76899377
0.7291408839
0.7290431622
0.8436950594
0.6889457579
0.7060324357
0.8485893026
0.7511283763
0.768241751
0.7893433083
0.7488168647
0.8946258296
0.8657575772
0.6929808645
0.7765926617
0
0.477987359
0.6727412316
0.8796191663
0.7007159904
0.798113372
0.743138388
0.4567002284
0.4545876618
0.6893293905
0.837771271
0.5981447458
0.4387148199
0.6727412316
0.6840909923
0.7057294273
0.8587110949
0.7422192592
0.7469393557
0.8392535251
0.8796191663
0.8660146866
0.8629981496
0.745725816
0.7765926617
0.7570408249
0.7126182833
0.6087120328
0.8230975523
0.6087120328
0.4779873591
0.4648231266
0.6859869566
0.7497432144
0.745725816
0.6829560343
0.4648231266
0.7422192593
0.8587110949
0.8320463682
0.7452545052
0.6905016473
0.7527500794
0.4872236868
0.6121356363
0.7080989203
0.7566019936
0.7777348555
0.7568617717
0.4910574261
0.4980013903
0.7466879384
0.7386101228
0.4545876618
0.4428113442
0.5218454199
0.5520796087
0
0.6167512441
0.4059942145
0.5650167023
0.4064786768
0.7150842966
0.6192486686
0.4298422353
0.7377726683
0.7356280845
0.5163568455
0.4949068877
0.7315380494
0.7629035306
0.4962909123
0.7368508372
0.7377765192
0.7322193614
0.6804331064
0.5487852146
0.707853725
0.4904317659
0.5496131784
0.4253219146
0.721026933
0.6959885942
0.7371186428
0.7302667608
0.4393092213
0.7599972291
0.7350368242
0.7604382115
0.7361477402
0.7955239374
0.8412895991
0.6650922787
0.7700455155
0.819419082
0.6402852163
0.6158782363
0.651396003
0.6953169554
0.727656763
0.7843737023
0.6870270222
0.7762347087
0.8038990586
0.4420419803
0.6580556545
0.8643051788
0.4019470259
0.2639882715
0.6076697309
0.5356749304
0.8748045821
0.7771149882
0
0
0.7919007977
0
0.7093364997
0.8151640031
0
0.5467146576
0.4471430563
0.8432609383
0.7172971234
0.7426154648
0.6765085825
0.5657970057
0
0
0.5180370411
0
0.4168670075
0.8170830082
0.8615141735
0.7726136175
0.7808947755
0.8272769194
0.732572064
0.7382029342
0.8538144795
0.8580758241
0.7627550072
0.8086632309
0.7823276454
0.7871276444
0.7780215537
0.7674747458
0.7575872775
0.7740648005
0.8020482905
0.7897770104
0.8013227987
0.7458591491
0.8451236846
0.6220530688
0.8055631312
0.7375183673
0.7296165781
0.7480050776
0.6635210106
0.8042481428
0.8110127239
0.7225412309
0.7474450766
0.8525820659
0.7903849304
0.8060185602
0.7355932986
0.758101761
0.7729559036
0.7576114322
0.7531803509
0.7684224007
0.7408473674
0.8094249837
0.7631849936
0.7912204089
0.8515420506
0.7895907758
0.7582248627
0.7668193
0.7306332461
0.7382907811
0.7376556147
0.835259427
0.7415886965
0.8040882688
0.8959527592
0.6325836467
0.6207204004
0.6715548733
0.8499013144
0.7456255318
0.7867022758
0.8505318247
0.666117682
0.7028462071
0.6888968511
0.7764410582
0.7526212516
0.8580758241
0.8311466639
0.8626405426
0.7917290014
0.8173645722
0.7576795669
0.6725906956
0.6796543325
0.7331185832
0.7805603209
0.776185896
0.7327598253
0.8320925082
0.7255015181
0.676518354
0.8704991053
0.762006303
0.7255028248
0.7358887888
0.6679608257
0.8371233253
0.8029257291
0.6766930597
0.818700135
0.8109894047
0.8309774741
0.6823800387
0.7376518082
0.7373201435
0.645862748
0.4563007347
0.4403838786
0.7443194649
0.2663302444
0.2727011988
0.2360953798
0.2719886937
0.6383274
0.6260206537
0.6735039528
0.411105737
0.4066777401
0.4223169541
0.4285952887
0.7496497562
0.7522909831
0.79387763
0.5374310635
0.4929253565
0.5382393115
0.4926616707
0.2681034464
0.5043180762
0.5041257775
0.2519959272
0.4324446473
0.7561652976
0.5069023916
0.2508970547
0.2622505792
0.499408837
0.265817361
0.4219679214
0.4290818048
0.2686295912
0.4969728584
0.4762471234
0.4510221684
0.8235129492
0.5771152932
0.5193412545
0.7189921438
0.4733695971
0.4779541623
0.4753704846
0.7745305503
0.4756959621
0.5781300889
0.7913120165
0.8680590188
0.8352369581
0.8699304325
0.6128172559
0.5820518898
0.6340931739
0.5896079917
0.8264073968
0.7764410582
0.7725920009
0.6996682678
0.7014727719
0.7111698779
0.6903252408
0.8975092638
0.8060406836
0
0
0.8407488575
0
0.7733498434
0.7559526299
0.6128172559
0.6128172559
0.6210135657
0.8586708421
0.8586708421
0.6210135657
0.6786573372
0.7173090161
0.6036445869
0.6128172559
0.8357557488
0.8411716846
0.7472102274
0.7118055331
0.6850407275
0.7129866812
0.7764410582
0.7051376157
0.7003883487
0.7805127232
0.7512950467
0.7458192057
0.699824556
0.7782817093
0.6722813402
0.714638719
0.8345781453
0.7429180522
0.7957426423
0.8052016294
0.8356519047
0.8767841055
0.9577546613
0.6700141715
0.799652236
0
0.549063634
0.3778349972
0.8908305891
0.7007159904
0.798113372
0.7572144974
0.4567002284
0.4545876618
0.435129868
0.6023805552
0.5981447458
0.4387148199
0.6973687608
0.6971713633
0.7464490178
0.8630360801
0.7594349693
0.7760368727
0.8546051963
0.8697731291
0.8667582568
0.8523936641
0.7346108286
0.7711553017
0.8019891712
0.7343039683
0.6246747917
0.8662593035
0.6246747917
0.549063634
0.5626860612
0.4209103775
0.4920802891
0.7796083175
0.6745931217
0.5626860612
0.5793155661
0.8597664781
0.707484865
0.7421770974
0.6942171099
0.7424531965
0.5053462281
0.4181520683
0.7647327343
0.4872902388
0.6566453674
0.7552036303
0.4910574261
0.4947975116
0.446689654
0.4534082008
0.4581497742
0.4411814784
0.6938546247
0.5691222406
0
0
0.4828245231
0
0.4309902468
0.7339692803
0.4586581628
0.4250596146
0.4834600831
0.4623686445
0.4815611206
0.4771089186
0.7215616773
0.75702614
0.5231468946
0.4195956991
0.7347266302
0.4882310975
0.736888916
0.5140542538
0.6905164077
0.4733886269
0.4910574261
0.4058063827
0.4624259577
0.4698240435
0.7473580281
0.7570704158
0.4412577559
0.4940043343
0.7502846409
0.4541656814
0.7492992097
0.8112043222
0.8694924813
0.7334903213
0.7130738699
0.8176266232
0.6541281163
0.6950531695
0.8584849219
0.8580758241
0.7639372016
0.8090968015
0.7878534433
0.796056066
0.7915121207
0.88278066
0.7384786048
0.7685143151
0.7386039788
0.7195110103
0.7717155582
0.7416989781
0.8732400449
0.5807065432
0.6900893442
0.7153405345
0.6903609581
0.6982333995
0.6325081917
0.7745377945
0.8139120328
0.6155698781
0.6849742585
0.8731380065
0.7111278811
0.7436625903
0.6509625194
0.8807617778
0.8004207472
0.7837574438
0.7201057712
0.7501958255
0.7347511638
0.7915803281
0.7126208302
0.7876501429
0.8918992659
0.6857856328
0.8108325083
0.716305479
0.7191267744
0.6924694775
0.6517950099
0.8278600576
0.7556063646
0.7191860526
0.8120264099
0.6338290919
0.6213401115
0.6828300562
0.8494907771
0.7499435929
0.7650610114
0.8492839746
0.6689817239
0.6789767089
0.6888968511
0.7751244719
0.7596226034
0.8493530342
0.8323678495
0.835981808
0.7947349631
0.8300100167
0.6446261951
0.6323685932
0.6442226887
0.7970491173
0.7296551655
0.7878255714
0.7383308391
0.728229467
0.6082822068
0.6508272517
0.856286174
0.8563991158
0.7552242828
0.7362970629
0.6781433353
0.8647776546
0.7963843933
0.696452891
0.8623333425
0.8176958576
0.7968187947
0.6611407995
0.7536002881
0.6947964592
0.6552070081
0.4181520683
0.4280771345
0.7589153488
0.2678352417
0.2484712888
0.2631555924
0.2718576682
0.6548673738
0.6231799459
0.6418565982
0.3929090588
0.4156852627
0.3972397958
0.4337501708
0.6975616072
0.8262310719
0.7938776301
0.5589168525
0.5887379809
0.5015482526
0.5559763507
0.4182007383
0.5969303857
0.5222158671
0.2745809811
0.7734785026
0.7613484165
0.6709284172
0.2639911834
0.2547554708
0.5067007544
0.2798708573
0.4420464204
0.4450039421
0.2777961443
0.5679326149
0.5211716022
0.4601945778
0.8810953121
0.6070386624
0.6546676663
0.8298735097
0.4773459226
0.4781043938
0.4302758889
0.7636093107
0.4760482978
0.5739994427
0.8092491629
0.8586708421
0.8399473666
0.8586708421
0.6128172559
0.6210135657
0.6210135657
0.6128172559
0.8463385984
0.7764410582
0.7768029303
0.6838911171
0.7042997344
0.7103830539
0.7076987665
0.8586708421
0.7764410582
0
0
0.821604209
0
0.7231418283
0.639682385
0
0.6128172559
0.6215842261
0.8433101814
0.8586708421
0.821604209
0.6318649583
0.710429621
0.6210135657
0.6446084658
0.7927631473
0.8586708421
0.7634391292
0
0.6210135657
0.7130385491
0.7764410582
0.7231418283
0.7014219773
0.8925925132
0.7618067428
0.6128172559
0.6947084158
0.7468243653
0.6744512848
0.7041265931
0.835408082
0.7678930057
0.7765926617
0.7626605583
0.6952217048
0.8586708421
0.8539286232
0.7525034569
0.7996522359
0
0.5490636339
0.3778349971
0.8908305892
0.7007159904
0.798113372
0.7142762821
0.4779873591
0.4545876618
0.4018462097
0.6020009208
0.5981447458
0.4702224459
0.3778349971
0.4006435106
0.68649234
0.7638034914
0.5247494514
0.6429575087
0.6304120381
0.8908305891
0.8796191663
0.8452531659
0.7875488642
0.7996522359
0.7441269917
0.6727412316
0.6564986536
0.8260133574
0.6246747917
0.5490636339
0.5439898201
0.4209103775
0.4725863628
0.7796083175
0.6745931217
0.5626860611
0.579315566
0.8597664781
0.7074848649
0.7421770974
0.4736700867
0.7408037585
0.5163130783
0.4593907672
0.4654607762
0.5282802161
0.4046832817
0.7085890217
0.4910574261
0.5496151635
0.5038993545
0.4265950906
0.5140559831
0.4058014906
0.6801934982
0.5675553049
0
0
0.5240228766
0
0.4220017974
0.5186773112
0
0.6197527106
0.7346549431
0.4770599892
0.6806493125
0.5247644894
0.4197067554
0.7159466339
0.4945085143
0.4589493019
0.6545521852
0.4974129791
0.6612377248
0
0.7380576447
0.5487567923
0.5677750802
0.422639623
0.5182499625
0.4795504808
0.7176748503
0.4536219305
0.4253505258
0.4585922504
0.6117790865
0.4287587803
0.6502366243
0
0
0.6969654785
0.8114697641
0
0.7730850751
0
0
0
0.5673945175
0.8236543704
0
0.6845114217
0
0.6131071659
0.5673945175
0.5673945175
0.6637852872
0.5912398762
0.5546281441
0.6533206789
0.8915750825
0.7323392023
0.715728144
0.7579131618
0.7604820684
0.7996537324
0.7029243186
0.7666037404
0
0.5827173114
0.7533333617
0.8479066747
0.6648705354
0.7689952541
0.7683278731
0.6551409518
0.5546281441
0.7312655991
0.7727852299
0.6448022886
0.635263909
0
0.6615421134
0.6533206789
0.7374028659
0.6593063435
0.6101800826
0.6102993734
0
0
0.5673945175
0.8236543704
0
0.6845114217
0
0
0
0.5673945175
0.8236543704
0
0.6845114217
0
0.5673945175
0.5673945175
0.5673945175
0.6533206789
0.5546281441
0.5546281441
0.6533206789
0.795689572
0.7579973639
0.6533206789
0.7830834516
0.8602150859
0.768353987
0.7690131447
0.7863968256
0
0.5546281441
0.795689572
0.8580758241
0.6909259988
0.8236543704
0.7559526299
0.5546281441
0.5546281441
0.7559526299
0.7559526299
0.6533206789
0.5673945175
0
0.6533206789
0.6533206789
0.6909259988
0.6845114217
0.5546281441
0.5673945175
0.5673945175
0.5673945175
0.5673945175
0.6533206789
0.5546281441
0.5546281441
0.6533206789
0.5673945175
0.5673945175
0.5673945175
0.6533206789
0.5546281441
0.5546281441
0.6533206789
0.5673945175
0.5673945175
0.5673945175
0.6533206789
0.5546281441
0.5546281441
0.6533206789
0.7403192886
0.7958510851
0.6533206789
0.7385540697
0.7492217911
0.7559526299
0.761944378
0.7382653744
0.5546281441
0.5546281441
0.7429689564
0.7431794595
0.5673945175
0.6533206789
0.8076739841
0.5546281441
0.5546281441
0.759445845
0.7557301526
0.6533206789
0.5673945175
0.6533206789
0.6533206789
0.6533206789
0.5673945175
0.5546281441
0.5546281441
0.5673945175
0.795689572
0.7553824579
0.7540568836
0.7908659033
0.8576632086
0.7458079971
0.7761273247
0.7248067402
0.7919726368
0.7265782344
0.7130948404
0.7313497492
0.7621366821
0.7553614699
0.7639434916
0.7504730314
0.6533206789
0.7446976217
0.7589505981
0.7688007508
0.7565711255
0.6558928
0.8763902938
0.7852065904
0.74568075
0.7467157663
0.7465056858
0.8213673465
0.7903885241
0.7216060305
0.7716923625
0.7610771015
0.7477335098
0.7824086905
0.7186320858
0.8188909883
0.7784751105
0.8058135108
0.7272029287
0.7227054186
0.7553506797
0.7385633804
0.7407723783
0.7454487326
0.7521148922
0.6881486926
0.7179804456
0.7894720274
0.7795616241
0.7863968256
0.7858560759
0.7511293273
0.7964525577
0.8580758241
0.8566993215
0.8006486453
0.7863968256
0
0.5546281441
0.795689572
0.8580758241
0.6909259988
0.8236543704
0.7478703451
0.5546281441
0.5546281441
0.7589253332
0.7560616124
0.5673945175
0.6533206789
0.775630476
0.7982998405
0.8070016991
0.8247434905
0.7673062047
0.7630067296
0.7785919036
0.8487275256
0.8599847976
0.776469687
0.8186436862
0.7753688676
0.7882270757
0.7654954244
0.821200489
0.7953713459
0.5673945175
0.7430788392
0.7809055052
0.7541872453
0.8070606278
0.7928879326
0.7614450028
0.6533206789
0.7741087222
0.8583321881
0.7709993168
0.7743294086
0.8369546813
0.7315643002
0.7675253037
0.7027906758
0.7374526152
0.7424811955
0.7760478344
0.7407762269
0.5546281441
0.5546281441
0.7425338602
0.7413623915
0.6533206789
0.5673945175
0.7558633997
0.5546281441
0.5546281441
0.7542260211
0.7564222763
0.6533206789
0.5673945175
0.7634358099
0.764613404
0.7474616384
0.7392439293
0.7495802673
0.7560195388
0.7627270427
0.7688940091
0.7413010048
0.7583658731
0.7390588952
0.7514143572
0.7416542026
0.7482372831
0.7539563447
0.7441214899
0.6533206789
0.7539972194
0.7379044098
0.7503995064
0.7431488859
0.7562313501
0.7360504969
0.5673945175
0.7374704285
0.7479434702
0.7500808349
0.7392063838
0
0.6533206789
0.6533206789
0.6909259988
0.6845114217
0.5546281441
0.5673945175
0.6533206789
0.6533206789
0.6533206789
0.5673945175
0.5546281441
0.5546281441
0.5673945175
0.6533206789
0.6533206789
0.6533206789
0.5673945175
0.5546281441
0.5546281441
0.5673945175
0.7477565027
0.7838450818
0.5673945175
0.7624049782
0.7776419181
0.7576166312
0.767230509
0.7587189692
0.5546281441
0.5546281441
0.7524613431
0.7510603098
0.6533206789
0.5673945175
0.7583565144
0.5546281441
0.5546281441
0.7437227375
0.7421687616
0.5673945175
0.6533206789
0.5673945175
0.5673945175
0.5673945175
0.6533206789
0.5546281441
0.5546281441
0.6533206789
0
0.6390897378
0.6712546325
0.8154120127
0.7187468062
0.6433069059
0.7605909155
0.6451088822
0.6530371
0.6530371
0.8250968431
0.6989011449
0.6177660886
0.731945998
0.6505196271
0.6530371
0.6530371
0.7650276175
0.6453669671
0.6177660886
0.731945998
0.8616519199
0.867742178
0.8051495254
0.7875670977
0.758440549
0.7081417554
0.7454383869
0.7311781191
0.6271543613
0.7276471632
0.8593229834
0.6428678821
0.7048032775
0.7048172269
0.7834525644
0.616994055
0.6177660886
0.7544422662
0.8648401799
0.7730902238
0.6715714533
0.7715613475
0.786066095
0.731945998
0.6582077275
0.6172708497
0.650517276
0.6840964288
0.6530371
0.6530371
0.6530371
0.731945998
0.6177660886
0.6177660886
0.731945998
0.6530371
0.6530371
0.6530371
0.731945998
0.6177660886
0.6177660886
0.731945998
0.6530371
0.6530371
0.6530371
0.731945998
0.6177660886
0.6177660886
0.731945998
0.7417914549
0.8383965217
0.731945998
0.7103131631
0.662796783
0.6620322482
0.7544761579
0.6499507178
0.6177660886
0.6177660886
0.8103400975
0.6461375222
0.6530371
0.731945998
0.7474475807
0.6177660886
0.6177660886
0.6803849368
0.8356649776
0.731945998
0.6530371
0.731945998
0.731945998
0.731945998
0.6530371
0.6177660886
0.6177660886
0.6530371
0.6530371
0.6530371
0.6530371
0.731945998
0.6177660886
0.6177660886
0.731945998
0.6530371
0.6530371
0.6530371
0.731945998
0.6177660886
0.6177660886
0.731945998
0.6530371
0.6530371
0
0.7438879626
0.6177660886
0.7724303057
0.731945998
0.8463417871
0.7764410582
0.731945998
0.7415879065
0.6704110601
0.6872296636
0.7559526299
0.7601657917
0.6177660886