# vtk DataFile Version 2.0
Mesquite Mesh original_mesh .
ASCII
DATASET UNSTRUCTURED_GRID
POINTS 7 double
-0.500000 -0.250000 0.500000
1.000000 0.000000 0.000000
0.500000 0.866025 0.000000
0.500000 0.288675 0.816497
-1.000000 0.000000 0.000000
-0.500000 -0.866025 0.000000
-0.500000 -0.288675 -0.816497
CELLS 2 10 
4 0 2 1 3
4 0 6 4 5
CELL_TYPES 2
10
10
POINT_DATA 7
SCALARS fixed int
LOOKUP_TABLE default
0
1
1
1
1
1
1
