# vtk DataFile Version 3.0
Mesquite Mesh
ASCII
DATASET UNSTRUCTURED_GRID
POINTS 729 double
0 0 0
0 0 1
1 0 0
0 1 0
1 0 1
0 1 1
1 1 0
1 1 1
0 0 0.5
0.5 0 0
0 0.5 0
0.5 0.5 0
0.5 0 0.5
0 0.5 0.5
0.5 0 1
0 0.5 1
0.5093931009 0.5306249061 0.5027431763
0.5 0.5 1
1 0 0.5
1 0.5 0
0 1 0.5
0.5 1 0
0.5 1 0.5
1 0.5 0.5
1 0.5 1
0.5 1 1
1 1 0.5
0 0 0.25
0.25 0 0
0 0.25 0
0.25 0.25 0
0 0 0.75
0.25 0 0.75
0 0.25 0.75
0.25 0 1
0 0.25 1
0.3083153874 0.2636423563 0.7440224128
0.25 0.25 1
0.75 0 0
0.75 0 0.25
1 0 0.25
1 0.25 0
0 0.75 0
0 0.75 0.25
0 1 0.25
0.25 1 0
0.25 1 0.25
0.75 0 1
1 0 0.75
1 0.25 0.75
1 0.25 1
0 0.75 1
0 1 0.75
0.25 1 1
0.75 0.75 0
0.7397574678 0.7731735276 0.2703949682
1 0.75 0
0.75 1 0
1 0.75 0.25
1 1 0.25
0.75 0.75 1
0.75 1 0.75
1 0.75 1
0.75 1 1
1 1 0.75
0.25 0 0.25
0 0.25 0.25
0.2607234853 0.2290917879 0.2230768268
0.25 0 0.5
0 0.25 0.5
0.2432604421 0.2140841362 0.5068277885
0.5 0.25 0
0.5 0 0.25
0.75 0.25 0
0.25 0.5 0
0 0.5 0.25
0.286740165 0.4705000989 0.25211515
0.25 0.75 0
0.4757185828 0.2209968677 0.2360916586
0.5161368231 0.4935953578 0.2128231224
0.75 0.5 0
0.5 0.75 0
0.5 0 0.75
0.4588354848 0.2197909837 0.5073330461
0.75 0 0.5
0.7070901051 0.2328023504 0.2283885692
0 0.5 0.75
0.1435822727 0.519136566 0.4836419848
0.2702605433 0.5230591981 0.7678249314
0 0.75 0.5
0.2285989477 0.7146600615 0.2216753641
0.261918494 0.7404775581 0.472386254
0.501513445 0.3043210463 0.7483314723
0.5 0.25 1
0.75 0 0.75
0.7486687154 0.2733996519 0.510183763
0.7430837223 0.2807583461 0.7529919834
0.75 0.25 1
0.25 0.5 1
0 0.75 0.75
0.25 0.75 1
0.5478575594 0.4800292507 0.7058550261
0.7408329056 0.5090688103 0.2432193173
0.4809128766 0.7326203562 0.2477352351
0.4688041984 0.7349917103 0.4597971433
0.707294118 0.5415338562 0.5092563677
0.7020362075 0.7331226921 0.4938591537
0.2749624558 0.7304100504 0.7408109349
0.5286395776 0.7496961275 0.7204793352
0.7684964977 0.4565506138 0.7797167539
0.75 0.5 1
0.5 0.75 1
0.7654212484 0.7477888053 0.7993012737
1 0.25 0.25
1 0.25 0.5
1 0.5 0.25
0.25 1 0.5
0.25 1 0.75
0.5 1 0.25
0.75 1 0.25
0.5 1 0.75
0.75 1 0.5
1 0.5 0.75
1 0.75 0.5
1 0.75 0.75
0 0 0.125
0.125 0 0
0 0.125 0
0.125 0.125 0
0 0 0.875
0.125 0 0.875
0 0.125 0.875
0.125 0 1
0 0.125 1
0.1567343252 0.1266570915 0.9058160439
0.125 0.125 1
0.875 0 0
0.875 0 0.125
1 0 0.125
1 0.125 0
0 0.875 0
0 0.875 0.125
0 1 0.125
0.125 1 0
0.125 1 0.125
0.875 0 1
1 0 0.875
1 0.125 0.875
1 0.125 1
0 0.875 1
0 1 0.875
0.125 1 1
0.875 0.875 0
0.8447844371 0.8975805702 0.09301718214
1 0.875 0
0.875 1 0
1 0.875 0.125
1 1 0.125
0.875 0.875 1
0.875 1 0.875
1 0.875 1
0.875 1 1
1 1 0.875
0 0 0.375
0 0 0.625
0.125 0 0.375
0 0.125 0.375
0.1457407258 0.09207797404 0.3209234924
0.125 0 0.5
0 0.125 0.5
0.1266211207 0.07666852943 0.4713820232
0.375 0 0
0.625 0 0
0.375 0 0.125
0.5 0.125 0
0.5 0 0.125
0.625 0.125 0
0 0.375 0
0 0.625 0
0 0.375 0.125
0.125 0.5 0
0 0.5 0.125
0.1773478298 0.4841485386 0.1375897866
0.125 0.625 0
0.375 0.375 0
0.625 0.625 0
0.4042673852 0.3740070505 0.0873765583
0.5 0.375 0
0.375 0.5 0
0.4974724782 0.3513096613 0.07357551831
0.49775904 0.4605169326 0.1094647844
0.625 0.5 0
0.5 0.625 0
0.375 0 0.625
0.625 0 0.375
0.375 0 0.5
0.5 0 0.375
0.4983363886 0.08351429327 0.3797870333
0.5 0 0.625
0.4841614936 0.1019541761 0.5119072386
0.625 0 0.5
0.5936282152 0.09821114752 0.3920304622
0 0.375 0.625
0 0.625 0.375
0 0.375 0.5
0 0.5 0.375
0 0.5 0.625
0.07784060341 0.5444489551 0.4855299204
0.07857145115 0.5399575451 0.5967243106
0 0.625 0.5
0.08684954708 0.6232000112 0.3967614346
0.1199159176 0.6593521319 0.5102986796
0.375 0 1
0.625 0 1
0.5 0 0.875
0.4838122802 0.1602700282 0.8574693822
0.5 0.125 1
0.625 0 0.875
0.6540521917 0.1309468255 0.7254044491
0.640458378 0.1349529102 0.8980084546
0.625 0.125 1
0 0.375 1
0 0.625 1
0 0.5 0.875
0.125 0.5 1
0 0.625 0.875
0.125 0.625 1
0.3463553146 0.3956729145 0.6383278393
0.6486926674 0.681025355 0.3250887266
0.3376610548 0.3632784118 0.4848866963
0.3535441803 0.4842457147 0.3476740309
0.490344739 0.5027432995 0.3367930835
0.4615680799 0.3842245271 0.4648414069
0.3452138174 0.504984528 0.5370903224
0.4878848914 0.4079613791 0.583684248
0.5204684504 0.4685971854 0.6344175815
0.594278108 0.5229758057 0.3263051528
0.5073187269 0.6257463422 0.3469108195
0.4600898657 0.610303059 0.4898141531
0.619158115 0.5011266644 0.4543478168
0.5999995127 0.6578894124 0.4605406432
0.375 0.375 1
0.625 0.625 1
0.350170747 0.5010395339 0.9276181048
0.5 0.375 1
0.375 0.5 1
0.5183998359 0.5423998654 0.8713910303
0.3393880576 0.6247465123 0.8862197381
0.484345107 0.6231248816 0.8642959769
0.6475790321 0.487168203 0.8896210153
0.625 0.5 1
0.5 0.625 1
0.6130451737 0.6385785689 0.8613993672
1 0 0.375
1 0 0.625
0.875 0 0.5
0.875 0 0.625
1 0.125 0.375
1 0.125 0.5
1 0.375 0
1 0.625 0
0.875 0.375 0
0.875 0.5 0
0.8223753138 0.3641815025 0.09288011448
0.8703173436 0.3525216491 0.2304301905
0.8684157454 0.4818641032 0.1119850147
1 0.375 0.125
1 0.5 0.125
0 1 0.375
0 1 0.625
0 0.875 0.5
0 0.875 0.625
0.1442690412 0.9092223887 0.6509800883
0.125 1 0.5
0.125 1 0.625
0.375 1 0
0.625 1 0
0.375 0.875 0
0.5 0.875 0
0.3696404727 0.8357098572 0.1038308613
0.465705384 0.8569861083 0.07758182044
0.5 1 0.125
0.625 1 0.125
0.375 1 0.375
0.625 1 0.625
0.3199810438 0.8205741026 0.4909645886
0.4939040631 0.88532184 0.5057361794
0.4726956209 0.8961132157 0.59772523
0.375 1 0.5
0.5 1 0.375
0.5 1 0.625
0.625 1 0.5
1 0.375 0.625
1 0.625 0.375
0.8384372182 0.3807077251 0.6104250127
0.858896884 0.4966626663 0.4894142135
0.863031423 0.4885833618 0.6284590008
1 0.375 0.5
1 0.5 0.375
1 0.5 0.625
1 0.625 0.5
1 0.375 1
1 0.625 1
0.875 0.375 1
0.875 0.5 1
1 0.5 0.875
1 0.625 0.875
0.375 1 1
0.625 1 1
0.375 0.875 1
0.5 0.875 1
0.375 1 0.875
0.5 1 0.875
1 1 0.375
1 1 0.625
0.8686951902 0.8640706607 0.5037252722
0.8700201369 0.8515510279 0.6386887019
0.875 1 0.375
0.875 1 0.5
1 0.875 0.5
1 0.875 0.625
0.125 0 0.125
0 0.125 0.125
0.1070737236 0.1284876237 0.07617022305
0.125 0 0.25
0 0.125 0.25
0.1049765592 0.1086028247 0.1861699592
0.25 0.125 0
0.25 0 0.125
0.375 0.125 0
0.125 0.25 0
0 0.25 0.125
0.1470940479 0.2359696534 0.1002967213
0.125 0.375 0
0.2380207034 0.1161923319 0.1181779755
0.2745518017 0.2485163131 0.1080797268
0.375 0.25 0
0.25 0.375 0
0.125 0 0.75
0 0.125 0.75
0.1713164399 0.1291400435 0.7564770036
0.125 0 0.625
0 0.125 0.625
0.1655846934 0.1132124025 0.6216421569
0.25 0 0.875
0.2231362331 0.1065164453 0.7858777283
0.25 0 0.625
0.2755471809 0.104967845 0.6238932189
0.375 0 0.75
0.3501339187 0.1088414023 0.6329345916
0 0.25 0.875
0.1534754404 0.2729087252 0.7497370388
0.118913377 0.2804125311 0.8551533209
0 0.25 0.625
0 0.375 0.75
0.1119837437 0.3641610779 0.6243745196
0.1437344379 0.40343345 0.7518875284
0.3016881446 0.1779931305 0.8845113111
0.25 0.125 1
0.375 0 0.875
0.3578640104 0.1120125701 0.7636142442
0.4005194753 0.1588991687 0.8751980681
0.375 0.125 1
0.125 0.25 1
0 0.375 0.875
0.125 0.375 1
0.2613265446 0.2818667073 0.8925039796
0.1560371466 0.2563899428 0.6180558997
0.2570891563 0.2198343211 0.6188352917
0.3550086908 0.2318310702 0.6069084016
0.2054754779 0.409940884 0.6147981696
0.2523233728 0.3670243568 0.7925100768
0.4116717987 0.2804442162 0.740294308
0.403764673 0.3934129894 0.7104314886
0.09379608414 0.4153579062 0.8522490259
0.2465770551 0.4355781319 0.8792365238
0.3681205013 0.3016727807 0.8706631987
0.375 0.25 1
0.25 0.375 1
0.3710003937 0.4279135279 0.8784586086
0.75 0 0.125
0.875 0.125 0
0.625 0 0.125
0.75 0.125 0
0.875 0 0.25
0.8561571556 0.1118241463 0.1289822894
0.625 0 0.25
0.7532519274 0.09387370487 0.1007398097
0.75 0 0.375
0.7214126841 0.1076569058 0.2633578173
1 0.125 0.125
0.875 0 0.375
1 0.125 0.25
0.875 0.25 0
0.8630138632 0.1155641662 0.2515715055
0.8259846235 0.2296394255 0.125835537
1 0.25 0.125
0 0.75 0.125
0.125 0.875 0
0 0.625 0.125
0.125 0.75 0
0.1090565073 0.7512272011 0.09322460388
0 0.875 0.25
0.1616978598 0.843651193 0.1759689753
0.1503433149 0.8841234658 0.2552114158
0 0.625 0.25
0 0.75 0.375
0.1187419746 0.7176444134 0.2635706028
0.1638014788 0.768753056 0.3633216169
0.125 1 0.25
0 0.875 0.375
0.1165905951 0.8464544127 0.366883877
0.125 1 0.375
0.25 1 0.125
0.25 0.875 0
0.2660134504 0.8489007546 0.1384058739
0.375 1 0.125
0.2325712912 0.8662006968 0.2550297517
0.2295468897 0.8253857531 0.3512916893
0.25 1 0.375
0.375 1 0.25
0.875 0 0.875
0.8828135426 0.1448267264 0.8866704175
0.875 0.125 1
0.75 0 0.875
0.7408620804 0.1365131489 0.882017569
0.75 0.125 1
0.9070231433 0.1098128141 0.7464177339
1 0.125 0.75
0.875 0 0.75
1 0.125 0.625
1 0.25 0.875
0.8941620432 0.2623214618 0.7692745954
0.8582962429 0.2911531894 0.8701761221
1 0.25 0.625
1 0.375 0.75
0.875 0.25 1
1 0.375 0.875
0 0.875 0.875
0.125 0.875 1
0 0.75 0.875
0.125 0.75 1
0.125 1 0.875
0 0.875 0.75
0.1115835977 0.8814691057 0.8909987984
0.125 1 0.75
0.25 0.875 1
0.25 1 0.875
0.7385311588 0.7454561482 0.08858120436
0.875 0.75 0
0.75 0.875 0
0.6219249096 0.626308648 0.08496939198
0.75 0.625 0
0.625 0.75 0
0.7382768831 0.6242964541 0.09164206648
0.8801961601 0.7650360822 0.1519058103
0.7753950765 0.9239125278 0.1195812604
0.8920679126 0.7860799013 0.2495137783
0.8732421691 0.8565452813 0.2727604772
0.6065052317 0.6253585235 0.1913455482
0.6474329349 0.7365059154 0.1071981847
0.7214625313 0.6669211726 0.2288955706
0.6006867579 0.7512618552 0.2650202125
0.7171460997 0.6658234696 0.3660832176
0.7567079636 0.7614555795 0.3484932239
0.7221525253 0.8985243023 0.257373894
1 0.75 0.125
0.875 0.625 0
0.8342994004 0.6043870789 0.1219349671
0.8604479398 0.627091273 0.2191971064
1 0.625 0.125
0.875 1 0.125
0.625 0.875 0
0.6219428861 0.887965182 0.08029097592
0.75 1 0.125
1 0.875 0.25
0.868994424 0.6348613875 0.3689607765
0.8896077545 0.7320837618 0.3741408524
1 0.625 0.25
1 0.75 0.375
0.8991428367 0.8518372367 0.3413918623
0.875 1 0.25
1 0.875 0.375
0.7007203658 0.9230367844 0.8270990015
0.875 0.75 1
0.75 0.875 1
0.8508224164 0.8826889432 0.8791686034
0.624664427 0.7832655269 0.8470050732
0.75 0.625 1
0.625 0.75 1
0.7651426107 0.7554298297 0.8996089158
[...]
POINT_DATA 729
SCALARS fixed int
LOOKUP_TABLE default
1
1
1
1
1
1
1
1
1
1
1
1
1
1
1
1
0
1
1
1
1
1
1
1
1
1
1
1
1
1
1
1
1
1
1
1
0
1
1
1
1
1
1
1
1
1
1
1
1
1
1
1
1
1
1
0
1
1
1
1
1
1
1
1
1
1
1
0
1
1
0
1
1
1
1
1
0
1
0
0
1
1
1
0
1
0
1
0
0
1
0
0
0
1
1
0
0
1
1
1
1
0
0
0
0
0
0
0
0
0
1
1
0
1
1
1
1
1
1
1
1
1
1
1
1
1
1
1
1
1
1
1
1
1
0
1
1
1
1
1
1
1
1
1
1
1
1
1
1
1
1
1
1
0
1
1
1
1
1
1
1
1
1
1
1
1
1
0
1
1
0
1
1
1
1
1
1
1
1
1
1
1
0
1
1
1
0
1
1
0
0
1
1
1
1
1
1
0
1
0
1
0
1
1
1
1
1
0
0
1
0
0
1
1
1
0
1
1
0
0
1
1
1
1
1
1
1
0
0
0
0
0
0
0
0
0
0
0
0
0
0
1
1
0
1
1
0
0
0
0
1
1
0
1
1
1
1
1
1
1
1
1
1
0
0
0
1
1
1
1
1
1
0
1
1
1
1
1
1
0
0
1
1
1
1
0
0
0
1
1
1
1
1
1
0
0
0
1
1
1
1
1
1
1
1
1
1
1
1
1
1
1
1
1
1
0
0
1
1
1
1
1
1
0
1
1
0
1
1
1
1
1
0
1
0
0
1
1
1
1
0
1
1
0
1
0
1
0
1
0
1
0
0
1
1
0
0
0
1
1
0
0
1
1
1
1
0
0
0
0
0
0
0
0
0
0
0
1
1
0
1
1
1
1
1
0
1
0
1
0
1
1
1
1
0
0
1
1
1
1
1
0
1
0
0
1
1
0
0
1
1
0
1
1
1
0
1
0
0
1
1
1
0
1
1
0
1
0
1
1
1
1
0
0
1
1
1
1
1
1
1
1
1
1
0
1
1
1
0
1
1
0
1
1
0
0
0
0
0
0
0
0
0
0
0
0
1
1
0
0
1
1
1
0
1
1
0
0
1
1
0
1
1
0
1
1
0
0
1
1
0
0
0
1
1
0
0
1
1
1
1
1
1
1
0
1
1
0
1
0
1
0
0
1
0
0
1
0
0
0
0
0
0
0
0
0
1
0
0
0
1
0
0
0
0
0
0
0
0
1
0
1
0
0
0
0
1
0
0
1
0
1
0
0
0
0
0
0
0
0
0
0
1
0
0
0
0
0
0
0
0
0
0
0
0
0
0
0
0
1
0
0
1
0
0
0
0
0
0
1
0
0
0
0
0
0
1
0
1
0
0
0
0
0
0
0
0
0
0
0
0
0
0
0
1
0
0
0
0
0
0
0
0
0
0
0
0
0
0
0
0
0
0
0
1
0
0
1
0
0
0
0
0
0
0
0
0
0
0
0
0
0
0
0
0
1
0
0
1
0
1
0
0
0
0
1
0
0
0
0
0
0
0
0
0
0
0
0
0
0
0
0
0
0
0
0
0
0
0
0
0
0
0
0
0
0
0
0
0
0
0
0
0
0
0
0
0
0
0
0
0
0
0
0
0
0
0
1
1
1
1
1
1
1
1
1
1
1
1

CELL_DATA 3072
FIELD Mean-ratio 1
metric 1 3072 double
0.6618326683
0.6586456093
0.7643471917
0
0
0
0.6855874937
0.7365895943
0.5467271757
0.7768065531
0.6793718333
0.7561053149
0.7068940089
0.6241927665
0.5255547935
0.6228395352
0.5584518325
0.5160246876
0.525877871
0.8180348005
0.7996220175
0.7833959979
0.653979893
0.5254949292
0.5362679389
0.6433179469
0.5092233449
0.7563180542
0.8144789294
0
0.7811447401
0.6861396818
0.5986309301
0.7627359305
0.7946297399
0
0.6347971077
0.6768252955
0.9020301638
0.7131621726
0.725114203
0.6204056383
0.6715057255
0
0.5440025953
0.5495720265
0.5934332879
0.7422903854
0.638377853
0.6179686615
0.5689642789
0.4768747099
0.6456962972
0.5702130299
0.6440969923
0.7251208841
0.4783762364
0.5758920811
0.8324982402
0.8283152576
0.6691716888
0.8624668187
0.7874674494
0.7168531426
0.8953114615
0.5261209385
0.5261220446
0.6182056027
0.6360544133
0.7821820381
0.701526917
0
0.8265546292
0.6809172464
0.5641117733
0.5747245653
0.6441493717
0
0.7611769425
0.5395063186
0.8777580703
0.7554151737
0.7861112111
0.6552599956
0.7980596351
0
0.6435029879
0.5191241212
0.7140924765
0.7355447353
0.6866682291
0.7218345107
0.5703963468
0.7486035698
0.6997096881
0.6332307857
0.7130787488
0.7204278203
0.7552099742
0.7741960509
0.7921389105
0.731749716
0.7228716463
0.7200129079
0.7708652479
0.7532323542
0.6761897503
0.6074058864
0.6263295986
0.6230148807
0.6806059019
0.7080091984
0.6719464543
0.6935987393
0.6226725928
0.7054697677
0.7467506726
0.6406052457
0.7135363255
0.7469073444
0.6967343698
0.6192989885
0.7421921136
0.633510444
0.7739803634
0.7973747916
0.6572194268
0.7740532695
0.7141571449
0.6698374611
0.758186725
0.7374556107
0.7063998215
0.7418689134
0.6898576314
0.8170466509
0.6957547157
0.713084925
0.7385091282
0.7238101249
0.7498127173
0.6824430112
0.7431205828
0.6863683052
0.8306883907
0.8936074365
0.6380460726
0.5544152467
0.7243619113
0.6283119303
0.6393315257
0.7259240933
0.8151234027
0.7943916075
0.7297853721
0.6046286165
0.806639433
0.7164093288
0.6479799685
0.7757512176
0.4042118972
0.7902835495
0.7401430576
0.4042120221
0.509336044
0.6029259267
0.5180249457
0.600312725
0.7080077813
0.8412679321
0.4468532737
0.5592806472
0.6640689258
0.874706711
0.8594400208
0.6773052987
0.7496610969
0.6604411775
0.716416809
0.6417956583
0.5486290795
0.8041466877
0.7659868328
0.7921775178
0.574853627
0.6206178103
0.6711898314
0.6540371193
0.7761103127
0.744395637
0.7377026853
0.5330570562
0.5155261071
0.5120385806
0.517661351
0.6828095383
0.7709565191
0.7397203464
0.5184588893
0.436960954
0.6190248859
0.4711682079
0.8557817006
0.7116525096
0.6921472579
0.5231688123
0.5814672952
0.5407481359
0.5440852024
0.4727645585
0.5110490275
0.5942405427
0.4889900873
0.7029452258
0.6572764924
0.5785880562
0.4980325061
0.4875827506
0.6189618453
0.5244105981
0.733710028
0.8113600632
0.4960820105
0.5399362344
0.5620761026
0.4468785271
0.8072801486
0.6841211515
0.4489195813
0.5696961732
0.4231646289
0.5355478027
0.4371039603
0.7999533795
0.4443866274
0.4261858536
0.7535738951
0.8072974877
0.6510475239
0.8243482778
0.7823070352
0.6196912149
0.8066718895
0.7026100946
0.8571170211
0.6606060534
0.7831287666
0.9548617408
0.8485446324
0.6374988771
0.6263675659
0.7671170337
0.7577116264
0
0.7070141554
0.6290870257
0.6295442324
0.6525671769
0.5756497212
0.7228329519
0.7575843943
0.585352839
0.7816945538
0.7685931387
0.5958365204
0.5907684951
0.5689580605
0.7111443452
0.7498212389
0.7429563368
0.815093768
0.5453265551
0.5944521832
0.7858698211
0.5711278308
0.7084641684
0.5814563742
0.7490685269
0.9486784133
0.7277918175
0.742624997
0.705414863
0.8284391
0.7825219036
0.7780265512
0.8815059764
0.7358628729
0.6709319996
0.7210994332
0.7136686757
0.7893558953
0.8220592817
0.6181968564
0.6164348395
0
0.6679363376
0.8055893895
0.8318491886
0.8352698189
0.7064897013
0.692574339
0.6988850794
0.6778278507
0.6450599511
0.8926011152
0.7655965799
0.6149863765
0.6322297333
0.6311662892
0.6396537938
0.8428833345
0.7190091036
0.6966597532
0.7786038072
0.8428956833
0.8783917543
0.8946110319
0.6752681407
0.7917752317
0.7394413763
0.7490692704
0.7368960086
0.7193807019
0.783259748
0.7165332558
0.6102940346
0.6671367174
0.6437099727
0.6662955977
0.6234458676
0.6230942443
0.7426963551
0.8273789601
0.8535672472
0.6134728189
0.6437707869
0.7764656414
0.647290044
0.671641845
0.6774362025
0.6909927836
0.7531614992
0.7389429255
0.6694602488
0.6980572066
0.6565172419
0.6322651348
0.6945795951
0.6958360649
0.7391656237
0.6326299229
0
0.689188691
0.6650384998
0.6494366002
0.6013714359
0.7501510075
0.6671902503
0.6660056099
0.6782389435
0.684871393
0.6908608025
0.5998446969
0.664195683
0.6536336151
0.6572897852
0.6410899759
0.6808307987
0.6078078162
0.6100787916
0.6947232804
0.6754684499
0.668989154
0.6354937595
0.6070274695
0.713915473
0.6401893962
0.6993436972
0.6524637681
0.7139957809
0.7200672447
0.7043309689
0.7515312525
0.7476059084
0.545915616
0.6425503671
0.7108122244
0.5240831501
0.5467847502
0.5462783216
0.5468930396
0.6731855957
0.7862158855
0.5462620655
0.7643466702
0.7054055191
0.6664864679
0.8092899399
0.8507981762
0.6768647757
0.6650772164
0.4703459225
0.5955877723
0.5824437127
0.6837173993
0.8002535256
0.7724299292
0
0
0.6559072117
0
0.7181967455
0.6460247997
0
0.6504655669
0.5929282554
0.8591730861
0.794905559
0.7148501068
0.7065782977
0.6248367491
0
0
0.585248116
0
0.6018228325
0.7320505484
0.7143403427
0.5680279684
0.6307305511
0.7572311389
0.5604345971
0.6625475275
0.7662613146
0.6947916705
0.7532855934
0.7932098263
0.7711303147
0.8127390489
0.7889414429
0.571513451
0.6863882782
0.5400869719
0.6481080489
0.8787236571
0.6214445655
0.6065669668
0.6644449973
0.5920149826
0.8693497612
0.8340219649
0.7259146744
0.9431889759
0.7445108125
0.7214430829
0.7148309497
0.754431058
0.63830973
0.6669970553
0.6615159349
0.7007003622
0.9033067164
0.7864459965
0.7241308893
0.8831742781
0.7702516212
0.8646870735
0.8208140006
0.7551372355
0.7524542715
0.8190021773
0.779791465
0.7024026659
0.7815429653
0.7347418045
0.7254423733
0.619754051
0.5408144855
0.5913625909
0.5779608702
0.5562063762
0.6757923989
0.5444350826
0.5677973345
0.5804144903
0.7676684045
0.679389042
0.6764741811
0.6825813077
0.6451562885
0.6000038648
0.6338440368
0.7397737118
0.6062051233
0.7493884519
0.8224054947
0.4527922546
0.6768680717
0.7860322988
0.6022046324
0.4881081021
0.56375093
0.6024006605
0.487060926
0.5921219754
0.7764898725
0.6952416207
0.4717288318
0.7368190403
0.6446296968
0.5100672964
0.6719184357
0.6123153369
0.5100999483
0.5213858792
0.6773389462
0.6049523252
0.7067138226
0.7678745983
0.7621574714
0.5452966084
0.6925960169
0.5528724177
0.5490960058
0.8020816102
0.7601101367
0.6631446865
0.5397890194
0.5410906827
0.5021986498
0.5301463942
0.7624739407
0.783447227
0.6425816123
0.4705946213
0.5251149872
0.4504448607
0.4826904986
0.8445252243
0.7549101828
0.8315345899
0.4992770597
0.4762352852
0.4938291009
0.5149565647
0.5414720653
0.5115605231
0.543755563
0.6340810655
0.7753531594
0.8276049331
0.511386206
0.5626549818
0.5030868525
0.5546714463
0.6715060733
0.8103953778
0.8613773276
0.4990116645
0.5242060546
0.4293465456
0.4602668455
0.6120630559
0.4176493686
0.4541388397
0.6206496657
0.5371490421
0.4565865819
0.4535143583
0.7167410638
0.5034068354
0.4647442019
0.781676971
0.796980618
0.7147320037
0.8077439541
0.751255941
0.7733864635
0.5885231033
0.679722077
0.8236397299
0.7692581983
0.729469863
0.5891007496
0.5823627135
0.5989402463
0.6785757037
0.7902102468
0.7738564166
0
0
0.5779236937
0
0.6261249523
0.5989505034
0.6878976799
0.6639945776
0.6543147688
0.598946505
0.8120657266
0.6756803259
0.6157640286
0.6174776645
0.6653263188
0.7273480972
0.6372052122
0.6977833055
0.6580790263
0.5533815402
0.7207239463
0.6156703799
0.7638757533
0.6640445746
0.5808770876
0.6976616237
0.7696343972
0.7326538895
0.6547752451
0.8097427698
0.7447067685
0.582362782
0.8146966908
0.7617613569
0.8165955896
0.7572981053
0.8266647886
0.8250999603
0.8977193692
0.6622396205
0.8582250661
0
0.6317187043
0.5698883036
0.8484849136
0.7601862742
0.7282122483
0.6199225842
0.7584937687
0.6961041264
0.6042231608
0.680321427
0.7985920219
0.6559829016
0.6236530965
0.6435855282
0.6221889539
0.8194999317
0.6554743732
0.7131458579
0.6693021885
0.8579122885
0.8279001915
0.672063193
0.6302986525
0.6636834294
0.793561285
0.7157438332
0.7050083938
0.8265413101
0.6815189901
0.7407941595
0.6603233189
0.5407013287
0.6880071019
0.7684628867
0.5892887128
0.645226305
0.7364557629
0.8137798923
0.7476505062
0.6471847728
0.6357040243
0.9013162897
0.6727856804
0.591365486
0.7355334801
0.604526874
0.7966967911
0.7890961652
0.6903368561
0.685428145
0.6631452388
0.5896186969
0.6431838442
0.6419886165
0.7362935819
0.6752222318
0
0
0.6470783621
0
0.635782001
0.7301632004
0.6561857105
0.7904363617
0.5562503352
0.631847963
0.7373595412
0.7630542646
0.6164358459
0.7598196568
0.7430465097
0.6105542367
0.7131460273
0.6095290457
0.6973157425
0.6044900387
0.718299058
0.6660849045
0.6167758912
0.6211940115
0.7163915194
0.7297000973
0.809247153
0.6909637557
0.6310212336
0.761098224
0.8184169557
0.5896187998
0.6909238801
0.6841831836
0.6502172187
0.6198119719
0.5051997557
0.7343173245
0.584751253
0.7098165084
0.6752735518
0.6295889561
0.8181020757
0.6579860547
0.6880724148
0.7050211898
0.6424349178
0.5591544751
0.5713666857
0.6178798069
0.6860409824
0.723525417
0.5453466579
0.6931275519
0.5506654929
0.6444110766
0.694907644
0.5628964406
0.5416130496
0.7342496284
0.6309133944
0.6819474595
0.7123125696
0.7507568516
0.6292278992
0.6299091362
0.6469416735
0.6117161621
0.5980265638
0.6090581949
0.5606078907
0.6463795951
0.5337931251
0.6852245024
0.6975574272
0.6381753644
0.5789443071
0.6478696129
0.7095703484
0.636063805
0.8326631024
0.7291594541
0.491531754
0.4810866359
0.7056379606
0.7811195783
0.6292812273
0.8459791627
0.7032633228
0.3937390637
0.433487291
0.4991184811
0.4700233884
0.4204237688
0.5148565909
0.4095298303
0.6982426777
0.5896982311
0.6485548487
0.8245354274
0.5831376684
0.6640671264
0.6239868913
0.9381226583
0.7183889173
0.8489535127
0.8727146056
0.7436609809
0.8138699149
0.8318670695
0.8640429455
0.4462327361
0.7496900509
0.7036553262
0.4479960954
0.6829429894
0.4389721747
0.610105145
0.6366801083
0.6055018089
0.7069860216
0.862218035
0.6276875439
0.6134012365
0.6688036415
0.8066475158
0.4350851798
0.5590717784
0.4541590807
0.4719036752
0.4338770412
0.7822003145
0.7489796989
0.7695260215
0.5567220185
0.5154712375
0.5256989574
0.5083057982
0.6505562683
0.7228229105
0.6579363227
0.4134110556
0.4256490228
0.4430162607
0.4849374321
0.7171965492
0.7174178852
0.7092273405
0.7135133581
0.5982245562
0.5807347834
0.4527843243
0.4509704388
0.4913010719
0.5044849727
0.5553114666
0.9058388633
0.6535593161
0.6669256663
0.5371329508
0.4904037561
0.5317256573
0.5744545437
0.7992599597
0.7828472185
0.5032565464
0.5246189692
0.5009365608
0.5252796604
0.7996811919
0.608244997
0.462326823
0.7305820568
0.4754735568
0.5162097444
0.6359666661
0.7836469336
0.4708318008
0.6175035596
0.6824168913
0.7082338622
0.7578477811
0.7795758564
0.7734087464
0.5818021648
0.7734243858
0.623206865
0.8355014108
0.6966735486
0.7414652447
0.5957273954
0.5390543019
0.5674801825
0.5509723977
0.7739279679
0.7803128487
0
0
0.5767954606
0
0.6610272924
0.6236496248
0
0.8078023695
0.7620948786
0.7828212748
0.7446399231
0.5886723069
0.5783905457
0.8190201637
0.6820459613
0.9041292943
0.8715019719
0.9134610922
0.8353772879
0
0.7010225473
0.6096701314
0.7140029983
0.6288173208
0.6779558866
0.7074139573
0.7707229138
0.7536973581
0.6015269544
0.7027145862
0.6541369061
0.5753098813
0.7766337527
0.7182317176
0.7199454583
0.6337238569
0.6394095402
0.8856184475
0.8529886391
0.6907743866
0.8138304953
0
0.6697967106
0.480673866
0.8138222188
0.6829448213
0.7586226933
0.6254876533
0.7113193062
0.7266439871
0.6025659478
0.7525246698
0.7337478217
0.6533898917
0.5395978599
0.6251240338
0.5840242128
0.7944343956
0.647245221
0.5988896525
0.6628163979
0.8695973556
0.8748178359
0.664160293
0.6783121912
0.7486068805
0.5991536918
0.5783043032
0.7818277966
0.7894015585
0.7562688902
0.7127320232
0.5899985047
0.6449594082
0.6918292673
0.7173498332
0.5714704024
0.5714703427
0.7797074144
0.8025133942
0.7465560524
0.6231194482
0.5708668425
0.7702162437
0.7027211811
0.5810463863
0.5166591284
0.6381515385
0.5567361354
0.6369314729
0.7722760495
0.7226989548
0.7287391976
0.7035884689
0.6876731064
0.7885504922
0.7060377999
0.6906697361
0
0
0.6158935378
0
0.6322250979
0.8093867254
0
0.7457203515
0.7196524141
0.7820825589
0.7697013375
0.7303478579
0.666638283
0.6676169838
0.646938197
0.5867210014
0.6813643568
0.677287908
0.6920653818
0
0.7291552014
0.6844876638
0.7105564968
0.6996741952
0.6542234167
0.6328545226
0.6334823233
0.6118893426
0.7123258574
0.6234411457
0.6015428786
0.6203275312
0.6127932642
0
0
0.779406286
0.6798174009
0
0.7214187724
0
0
0
0.7584569673
0.7315066828
0
0.7277570896
0
0.7381906152
0.680384108
0.7704095701
0.5721473417
0.6386190724
0.7776203853
0.7339097872
0.631215174
0.7087051828
0.6409022914
0.7549075223
0.520812283
0.7438544419
0.5832833541
0.7219490693
0
0.8396337132
0.6626697764
0.6646536598
0.7333797948
0.7331484904
0.6390385558
0.6186169329
0.7113420884
0.6731906654
0.6327271412
0.6627912548
0.6719715971
0
0.7923901966
0.7268979998
0.7437526792
0.8130723174
0.6879398501
0.8394330311
0
0
0.7492776377
0.7107810339
0
0.7083168011
0
0
0
0.7656858106
0.7946117147
0
0.7792183806
0
0.7044701431
0.7287862669
0.6833268223
0.7632736048
0.7289433028
0.7001513175
0.7175443136
0.7026875662
0.7043718422
0.6915106186
0.7502135774
0.7368330327
0.7629653951
0.7236571066
0.7200852856
0
0.695746613
0.7513362093
0.7206166084
0.7066763164
0.6875772475
0.6867492067
0.6867493235
0.6479801751
0.7415419653
0.7480553148
0.6665095899
0.7479242289
0
0.6958145311
0.7528278872
0.7291280276
0.6703315472
0.7637490559
0.7247761115
0.7599878128
0.7250821358
0.7871645501
0.7394937024
0.6892408058
0.7650704945
0.7387391259
0.712557205
0.7269875107
0.6913774601
0.6996282916
0.7314854499
0.7276778893
0.7348705531
0.8234544222
0.68099459
0.8172933084
0.667577124
0.63575286
0.8160327543
0.6768330213
0.5715129875
0.5392953169
0.6336884596
0.6458338313
0.5910492739
0.647284498
0.5954150191
0.6584040598
0.6960640799
0.6371886698
0.6528991234
0.7824967828
0.6132278384
0.7220174027
0.6075678786
0.7500178971
0.6201829043
0.628987604
0.7101439779
0.6024499023
0.6634060792
0.7043503282
0.7202833089
0.7646730226
0.6314756594
0.7119207417
0.688824788
0.6985611486
0.6929834359
0.8406967778
0.8610539737
0.7625101032
0.75698169
0.899415329
0.8843702325
0.5945730556
0.6414949589
0.5167768517
0.7094306944
0.6185899891
0.6613180138
0.5167772891
0.6631340824
0.7940492328
0.7404033367
0.6203429641
0.6461691347
0.6282525744
0.6241394222
0.6989973668
0.7330725075
0.7132052642
0.6805607779
0.8122712342
0.6571116511
0.8476622575
0.6622163542
0.6698748826
0.7377224402
0.7837021665
0.7475934583
0.781128689
0.6829533606
0.6203452629
0.7567307355
0.7369560548
0.703977683
0.7948908072
0.7744357735
0.8068734202
0.6817991759
0.6726463347
0.6160956231
0.6072125031
0.7402338386
0.6333878796
0.7406012902
0.6967697333
0.70620681
0.6830337941
0.730062902
0.7386802491
0.6942035064
0.6681482814
0.7085834839
0
0.744562222
0.7304509682
0.6861834657
0.7204493637
0.6906128539
0.6335094853
0.647083306
0.6399567467
0.8238898259
0.7444205828
0.6797620438
0.7737487682
0.6050940596
0.625309674
0.7916128886
0.6263015189
0.6507174647
0.6301706446
0.7375532919
0.766922831
0.7344869495
0.7550955981
0.6229776183
0.7349793992
0.6385740278
0.767893714
0.6573326364
0.6919712091
0.6463643213
0.7462252728
0.7429213585
0.760593101
0.7807656217
0.7028976828
0.7018399498
0.6703598126
0.7415545504
0.7125560894
0.7357842584
0.670360021
0.6398312468
0.658376534
0.7201441185
0.5211709972
0.6582769351
0.5977753332
0.7440365326
0.8029180023
0.7591189764
0.7490489016
0.6888511861
0.6601954709
0.7565287508
0.7100855322
0.8080912287
0.6856205086
0.7061452587
0.7164940808
0.6969611016
0.6835271169
0.7180146963
0.7144359288
0.8313137608
0.7312694322
0.8604933226
0.8066769379
0.8290946151
0.8421890988
0.8089181737
0.6181890104
0.6772399629
0.7827166185
0.8695293189
0.8579587294
0.7791073775
0.8527610906
0.8084014514
0.6878489336
0.7058207717
0.7596628209
0.6656177329
0.697793734
0.6369761158
0.6314677668
0.7424353194
0.709966347
0.7785368799
0.6981689017
0.7856646175
0
0.7360194317
0.7196133373
0.7057361903
0.7249199917
0.7221896821
0.7804066743
0.7000607691
0.7355964991
0.7018908721
0.7068163146
0.7612617035
0.6724176489
0.7271206788
0.6931810139
0.6895927366
0.6928558345
0.7114569863
0.7027994619
0.6656397568
0.6979539941
0.72268859
0.7359820911
0.7375388088
0.8416377036
0.7108443817
0.8138899279
0.7082199601
0.6786933844
0.6831013664
0.7057999704
0.7608576732
0.8077443754
0.7329081152
0.8321021834
0.765746111
0.6895658034
0.6879499153
0.7411933345
0.7867577536
0.6908803603
0.731221944
0.6531160901
0.6983301984
0.7115360773
0.758455317
0.7823691172
0.6786943968
0.7050323836
0
0.6310101795
0.7142518917
0.7705279125
0.7564620631
0.7086163566
0.751404799
0.6926925922
0.7104067616
0.6092802313
0.8254209115
0.6900313632
0.6910416362
0.8230210545
0.6777481176
0.6037919314
0.591975673
0.6911724444
0.5439405004
0.6334558808
0.7091420138
0.8911116356
0.7233623823
0.6611646406
0.7133603494
0.7110830657
0.5110875754
0.6053218716
0.6291113595
0.6225953914
0.6815475939
0.7162949963
0.6406611007
0.6572261875
0.8120930826
0.7538635564
0.5520863451
0.5148639003
0.6893635945
0.7611157805
0.702733396
0.4881241024
0.822803991
0.8022776488
0.7431489351
0.6860625371
0.7211810896
0.650230316
0.6473689627
0.6797945336
0.7426366023
0.6468176843
0.7948632172
0.7275197829
0.7968167208
0.8644653105
0.6577307325
0.6408319823
0.6455642881
0.6926299321
0.7492752597
0.6920049838
0.7920198205
0.6738181334
0.7916077383
0.6729622966
0.9598032911
0.8385295854
0.8309224793
0.8801518448
0.6671527815
0.863978064
0.6188321353
0.5776292923
0.5866200687
0.5846611748
0.7374135923
0.6175774535
0.7544795887
0.610399258
0.7262769824
0.5580668898
0.5767567752
0.7493636454
0.659902299
0.5744950498
0.5720481519
0.5785726292
0.760524612
0.6170822151
0.6176611802
0.8046169931
0.756157137
0.7934427751
0.6617283879
0.651951057
0.779652892
0.5840578503
0.6450705214
0.6981840286
0.6469495266
0.810682092
0.7632020311
0.7986021041
0.8427453364
0.6595911384
0.6587479682
0.6649455222
0.865752398
0.7690331796
0.7443307132
0.8020007629
0.5423286748
0.6212003679
0
0.6536589678
0.7858838729
0.6934173742
0.7866628032
0.6357734864
0.6511813519
0.7141818053
0.700109485